# Field minima and maxima
# Time        	field         	min           	location(min) 	max           	location(max) 
10            	T             	2.800000e+02	(4.583253e-05 5.000000e-03 4.583253e-05)	3.181070e+02	(4.583253e-05 0.000000e+00 4.583253e-05)
